created by fftool

2000 atoms
2000 bonds
3900 angles
6100 dihedrals
20 atom types
20 bond types
39 angle types
61 dihedral types
0.000000 60.000000 xlo xhi
0.000000 60.000000 ylo yhi
0.000000 60.000000 zlo zhi

Masses

   1   14.007  # N00
   2   12.011  # C01
   3   12.011  # C02
   4   12.011  # C03
   5   12.011  # C04
   6   12.011  # C05
   7   12.011  # C06
   8    1.008  # H07
   9    1.008  # H08
  10    1.008  # H09
  11    1.008  # H0A
  12    1.008  # H0B
  13    1.008  # H0C
  14    1.008  # H0D
  15    1.008  # H0E
  16    1.008  # H0F
  17    1.008  # H0G
  18    1.008  # H0H
  19    1.008  # H0I
  20    1.008  # H0J

Bond Coeffs

   1   381.999578     1.448000  # C01-N00
   2   267.999704     1.529000  # C02-C01
   3   267.999704     1.529000  # C03-C02
   4   267.999704     1.529000  # C04-C03
   5   267.999704     1.529000  # C05-C04
   6   267.999704     1.529000  # C06-C05
   7   433.999521     1.010000  # H07-N00
   8   433.999521     1.010000  # H08-N00
   9   339.999625     1.090000  # H09-C01
  10   339.999625     1.090000  # H0A-C02
  11   339.999625     1.090000  # H0B-C02
  12   339.999625     1.090000  # H0C-C03
  13   339.999625     1.090000  # H0D-C03
  14   339.999625     1.090000  # H0E-C04
  15   339.999625     1.090000  # H0F-C04
  16   339.999625     1.090000  # H0G-C05
  17   339.999625     1.090000  # H0H-C05
  18   339.999625     1.090000  # H0I-C06
  19   339.999625     1.090000  # H0J-C06
  20   267.999704     1.529000  # C06-C01

Angle Coeffs

   1    34.999961   109.500000  # C01-N00-H07
   2    34.999961   109.500000  # C01-N00-H08
   3    43.599952   106.400000  # H07-N00-H08
   4    56.199938   109.470000  # N00-C01-C02
   5    34.999961   109.500000  # N00-C01-H09
   6    56.199938   109.470000  # N00-C01-C06
   7    37.499959   110.700000  # C02-C01-H09
   8    58.349936   112.700000  # C02-C01-C06
   9    37.499959   110.700000  # C06-C01-H09
  10    58.349936   112.700000  # C01-C02-C03
  11    37.499959   110.700000  # C01-C02-H0A
  12    37.499959   110.700000  # C01-C02-H0B
  13    37.499959   110.700000  # C03-C02-H0A
  14    37.499959   110.700000  # C03-C02-H0B
  15    32.999964   107.800000  # H0A-C02-H0B
  16    58.349936   112.700000  # C02-C03-C04
  17    37.499959   110.700000  # C02-C03-H0C
  18    37.499959   110.700000  # C02-C03-H0D
  19    37.499959   110.700000  # C04-C03-H0C
  20    37.499959   110.700000  # C04-C03-H0D
  21    32.999964   107.800000  # H0C-C03-H0D
  22    58.349936   112.700000  # C03-C04-C05
  23    37.499959   110.700000  # C03-C04-H0E
  24    37.499959   110.700000  # C03-C04-H0F
  25    37.499959   110.700000  # C05-C04-H0E
  26    37.499959   110.700000  # C05-C04-H0F
  27    32.999964   107.800000  # H0E-C04-H0F
  28    58.349936   112.700000  # C04-C05-C06
  29    37.499959   110.700000  # C04-C05-H0G
  30    37.499959   110.700000  # C04-C05-H0H
  31    37.499959   110.700000  # C06-C05-H0G
  32    37.499959   110.700000  # C06-C05-H0H
  33    32.999964   107.800000  # H0G-C05-H0H
  34    37.499959   110.700000  # C05-C06-H0I
  35    37.499959   110.700000  # C05-C06-H0J
  36    58.349936   112.700000  # C01-C06-C05
  37    32.999964   107.800000  # H0I-C06-H0J
  38    37.499959   110.700000  # C01-C06-H0I
  39    37.499959   110.700000  # C01-C06-H0J

Dihedral Coeffs

   1    -0.190000    -0.417000     0.418000     0.000000  # H07-N00-C01-C02
   2    -0.190000    -0.417000     0.418000     0.000000  # H08-N00-C01-C02
   3     0.000000     0.000000     0.400000     0.000000  # H09-C01-N00-H07
   4     0.000000     0.000000     0.400000     0.000000  # H09-C01-N00-H08
   5    -0.190000    -0.417000     0.418000     0.000000  # H07-N00-C01-C06
   6    -0.190000    -0.417000     0.418000     0.000000  # H08-N00-C01-C06
   7     2.391997    -0.673999     0.549999     0.000000  # C03-C02-C01-N00
   8     0.000000     0.000000     0.300000     0.000000  # H09-C01-C02-C03
   9     1.299999    -0.200000     0.200000     0.000000  # C06-C01-C02-C03
  10    -1.012999    -0.708999     0.472999     0.000000  # H0A-C02-C01-N00
  11     0.000000     0.000000     0.300000     0.000000  # H0A-C02-C01-H09
  12     0.000000     0.000000     0.300000     0.000000  # H0A-C02-C01-C06
  13    -1.012999    -0.708999     0.472999     0.000000  # H0B-C02-C01-N00
  14     0.000000     0.000000     0.300000     0.000000  # H0B-C02-C01-H09
  15     0.000000     0.000000     0.300000     0.000000  # H0B-C02-C01-C06
  16     1.299999    -0.200000     0.200000     0.000000  # C04-C03-C02-C01
  17     0.000000     0.000000     0.300000     0.000000  # H0A-C02-C03-C04
  18     0.000000     0.000000     0.300000     0.000000  # H0B-C02-C03-C04
  19     0.000000     0.000000     0.300000     0.000000  # H0C-C03-C02-C01
  20     0.000000     0.000000     0.300000     0.000000  # H0C-C03-C02-H0A
  21     0.000000     0.000000     0.300000     0.000000  # H0C-C03-C02-H0B
  22     0.000000     0.000000     0.300000     0.000000  # H0D-C03-C02-C01
  23     0.000000     0.000000     0.300000     0.000000  # H0D-C03-C02-H0A
  24     0.000000     0.000000     0.300000     0.000000  # H0D-C03-C02-H0B
  25     1.299999    -0.200000     0.200000     0.000000  # C05-C04-C03-C02
  26     0.000000     0.000000     0.300000     0.000000  # H0C-C03-C04-C05
  27     0.000000     0.000000     0.300000     0.000000  # H0D-C03-C04-C05
  28     0.000000     0.000000     0.300000     0.000000  # H0E-C04-C03-C02
  29     0.000000     0.000000     0.300000     0.000000  # H0E-C04-C03-H0C
  30     0.000000     0.000000     0.300000     0.000000  # H0E-C04-C03-H0D
  31     0.000000     0.000000     0.300000     0.000000  # H0F-C04-C03-C02
  32     0.000000     0.000000     0.300000     0.000000  # H0F-C04-C03-H0C
  33     0.000000     0.000000     0.300000     0.000000  # H0F-C04-C03-H0D
  34     1.299999    -0.200000     0.200000     0.000000  # C06-C05-C04-C03
  35     0.000000     0.000000     0.300000     0.000000  # H0E-C04-C05-C06
  36     0.000000     0.000000     0.300000     0.000000  # H0F-C04-C05-C06
  37     0.000000     0.000000     0.300000     0.000000  # H0G-C05-C04-C03
  38     0.000000     0.000000     0.300000     0.000000  # H0G-C05-C04-H0E
  39     0.000000     0.000000     0.300000     0.000000  # H0G-C05-C04-H0F
  40     0.000000     0.000000     0.300000     0.000000  # H0H-C05-C04-C03
  41     0.000000     0.000000     0.300000     0.000000  # H0H-C05-C04-H0E
  42     0.000000     0.000000     0.300000     0.000000  # H0H-C05-C04-H0F
  43     0.000000     0.000000     0.300000     0.000000  # H0I-C06-C05-C04
  44     0.000000     0.000000     0.300000     0.000000  # H0I-C06-C05-H0G
  45     0.000000     0.000000     0.300000     0.000000  # H0I-C06-C05-H0H
  46     0.000000     0.000000     0.300000     0.000000  # H0J-C06-C05-C04
  47     0.000000     0.000000     0.300000     0.000000  # H0J-C06-C05-H0G
  48     0.000000     0.000000     0.300000     0.000000  # H0J-C06-C05-H0H
  49     1.299999    -0.200000     0.200000     0.000000  # C04-C05-C06-C01
  50     0.000000     0.000000     0.300000     0.000000  # H0G-C05-C06-C01
  51     0.000000     0.000000     0.300000     0.000000  # H0H-C05-C06-C01
  52     2.391997    -0.673999     0.549999     0.000000  # C05-C06-C01-N00
  53    -1.012999    -0.708999     0.472999     0.000000  # H0I-C06-C01-N00
  54    -1.012999    -0.708999     0.472999     0.000000  # H0J-C06-C01-N00
  55     1.299999    -0.200000     0.200000     0.000000  # C05-C06-C01-C02
  56     0.000000     0.000000     0.300000     0.000000  # H0I-C06-C01-C02
  57     0.000000     0.000000     0.300000     0.000000  # H0J-C06-C01-C02
  58     0.000000     0.000000     0.300000     0.000000  # H09-C01-C06-C05
  59     0.000000     0.000000     0.300000     0.000000  # H0I-C06-C01-H09
  60     0.000000     0.000000     0.300000     0.000000  # H0J-C06-C01-H09
  61     0.000000    -1.000000     2.000000     0.000000  # H08-H07-N00-C01

Atoms

      1       1    1  -0.916800  3.076601e+01  4.590737e+00  4.946386e+01  # N00 CHA
      2       1    2   0.149700  3.010625e+01  4.901799e+00  5.073436e+01  # C01 CHA
      3       1    3  -0.221000  2.980605e+01  6.402759e+00  5.085200e+01  # C02 CHA
      4       1    4  -0.174200  2.868936e+01  6.864835e+00  4.991549e+01  # C03 CHA
      5       1    5  -0.177100  2.742514e+01  6.029512e+00  5.009537e+01  # C04 CHA
      6       1    6  -0.177600  2.770199e+01  4.534283e+00  4.995951e+01  # C05 CHA
      7       1    7  -0.169300  2.882034e+01  4.078164e+00  5.088615e+01  # C06 CHA
      8       1    8   0.330300  3.159215e+01  5.177764e+00  4.935588e+01  # H07 CHA
      9       1    9   0.330300  3.015568e+01  4.820911e+00  4.868126e+01  # H08 CHA
     10       1   10   0.112900  3.079897e+01  4.619586e+00  5.153570e+01  # H09 CHA
     11       1   11   0.092200  3.071181e+01  6.991601e+00  5.066157e+01  # H0A CHA
     12       1   12   0.092200  2.950896e+01  6.619343e+00  5.188662e+01  # H0B CHA
     13       1   13   0.086300  2.902616e+01  6.805048e+00  4.887350e+01  # H0C CHA
     14       1   14   0.086300  2.846138e+01  7.918687e+00  5.011317e+01  # H0D CHA
     15       1   15   0.088900  2.667505e+01  6.334417e+00  4.935671e+01  # H0E CHA
     16       1   16   0.088900  2.699822e+01  6.229823e+00  5.108605e+01  # H0F CHA
     17       1   17   0.090400  2.796150e+01  4.303612e+00  4.891923e+01  # H0G CHA
     18       1   18   0.090400  2.678929e+01  3.972739e+00  5.018800e+01  # H0H CHA
     19       1   19   0.098600  2.902707e+01  3.014109e+00  5.071552e+01  # H0I CHA
     20       1   20   0.098600  2.847147e+01  4.163155e+00  5.192378e+01  # H0J CHA
     21       2    1  -0.916800  2.821945e+01  3.475743e+01  1.384666e+01  # N00 CHA
     22       2    2   0.149700  2.752981e+01  3.452425e+01  1.257535e+01  # C01 CHA
     23       2    3  -0.221000  2.705490e+01  3.584361e+01  1.195037e+01  # C02 CHA
     24       2    4  -0.174200  2.820297e+01  3.669906e+01  1.141401e+01  # C03 CHA
     25       2    5  -0.177100  2.908472e+01  3.591249e+01  1.044851e+01  # C04 CHA
     26       2    6  -0.177600  2.958408e+01  3.460688e+01  1.106239e+01  # C05 CHA
     27       2    7  -0.169300  2.844020e+01  3.376095e+01  1.160399e+01  # C06 CHA
     28       2    8   0.330300  2.762091e+01  3.530464e+01  1.446399e+01  # H07 CHA
     29       2    9   0.330300  2.905620e+01  3.531949e+01  1.369871e+01  # H08 CHA
     30       2   10   0.112900  2.665237e+01  3.390418e+01  1.279277e+01  # H09 CHA
     31       2   11   0.092200  2.647241e+01  3.642453e+01  1.267608e+01  # H0A CHA
     32       2   12   0.092200  2.637270e+01  3.561182e+01  1.112182e+01  # H0B CHA
     33       2   13   0.086300  2.881044e+01  3.707444e+01  1.224637e+01  # H0C CHA
     34       2   14   0.086300  2.779371e+01  3.757725e+01  1.090123e+01  # H0D CHA
     35       2   15   0.088900  2.993928e+01  3.652860e+01  1.014625e+01  # H0E CHA
     36       2   16   0.088900  2.851369e+01  3.568927e+01  9.538594e+00  # H0F CHA
     37       2   17   0.090400  3.029668e+01  3.482968e+01  1.186570e+01  # H0G CHA
     38       2   18   0.090400  3.013209e+01  3.403478e+01  1.030545e+01  # H0H CHA
     39       2   19   0.098600  2.884502e+01  3.286283e+01  1.208727e+01  # H0I CHA
     40       2   20   0.098600  2.783338e+01  3.341065e+01  1.075860e+01  # H0J CHA
     41       3    1  -0.916800  2.998188e+01  3.778951e+01  5.285892e+01  # N00 CHA
     42       3    2   0.149700  3.042963e+01  3.918341e+01  5.280628e+01  # C01 CHA
     43       3    3  -0.221000  3.196193e+01  3.927613e+01  5.282336e+01  # C02 CHA
     44       3    4  -0.174200  3.260484e+01  3.879850e+01  5.152102e+01  # C03 CHA
     45       3    5  -0.177100  3.201811e+01  3.951714e+01  5.030954e+01  # C04 CHA
     46       3    6  -0.177600  3.049541e+01  3.941604e+01  5.026513e+01  # C05 CHA
     47       3    7  -0.169300  2.985788e+01  3.988343e+01  5.156609e+01  # C06 CHA
     48       3    8   0.330300  3.040591e+01  3.732514e+01  5.366100e+01  # H07 CHA
     49       3    9   0.330300  3.030675e+01  3.728109e+01  5.203799e+01  # H08 CHA
     50       3   10   0.112900  3.003884e+01  3.968225e+01  5.370077e+01  # H09 CHA
     51       3   11   0.092200  3.237180e+01  3.870540e+01  5.366579e+01  # H0A CHA
     52       3   12   0.092200  3.224649e+01  4.032307e+01  5.299229e+01  # H0B CHA
     53       3   13   0.086300  3.246702e+01  3.771611e+01  5.141065e+01  # H0C CHA
     54       3   14   0.086300  3.368577e+01  3.897611e+01  5.156226e+01  # H0D CHA
     55       3   15   0.088900  3.244275e+01  3.909588e+01  4.939115e+01  # H0E CHA
     56       3   16   0.088900  3.230970e+01  4.057442e+01  5.034101e+01  # H0F CHA
     57       3   17   0.090400  3.020379e+01  3.837939e+01  5.005765e+01  # H0G CHA
     58       3   18   0.090400  3.011428e+01  4.002209e+01  4.943567e+01  # H0H CHA
     59       3   19   0.098600  2.877126e+01  3.973969e+01  5.151448e+01  # H0I CHA
     60       3   20   0.098600  3.002262e+01  4.096422e+01  5.166791e+01  # H0J CHA
     61       4    1  -0.916800  1.494121e+01  6.924664e+00  1.790434e+01  # N00 CHA
     62       4    2   0.149700  1.466386e+01  8.324134e+00  1.823720e+01  # C01 CHA
     63       4    3  -0.221000  1.363438e+01  8.432420e+00  1.937089e+01  # C02 CHA
     64       4    4  -0.174200  1.419042e+01  7.998909e+00  2.072751e+01  # C03 CHA
     65       4    5  -0.177100  1.547602e+01  8.745590e+00  2.107113e+01  # C04 CHA
     66       4    6  -0.177600  1.651974e+01  8.629802e+00  1.996295e+01  # C05 CHA
     67       4    7  -0.169300  1.596130e+01  9.053180e+00  1.861154e+01  # C06 CHA
     68       4    8   0.330300  1.406631e+01  6.442100e+00  1.770319e+01  # H07 CHA
     69       4    9   0.330300  1.534796e+01  6.443303e+00  1.870484e+01  # H08 CHA
     70       4   10   0.112900  1.424585e+01  8.793133e+00  1.733889e+01  # H09 CHA
     71       4   11   0.092200  1.274018e+01  7.842251e+00  1.913526e+01  # H0A CHA
     72       4   12   0.092200  1.330425e+01  9.477056e+00  1.944411e+01  # H0B CHA
     73       4   13   0.086300  1.437997e+01  6.918715e+00  2.072636e+01  # H0C CHA
     74       4   14   0.086300  1.344072e+01  8.186613e+00  2.150493e+01  # H0D CHA
     75       4   15   0.088900  1.588839e+01  8.355171e+00  2.200854e+01  # H0E CHA
     76       4   16   0.088900  1.524402e+01  9.804545e+00  2.124036e+01  # H0F CHA
     77       4   17   0.090400  1.688326e+01  7.596476e+00  1.990969e+01  # H0G CHA
     78       4   18   0.090400  1.738467e+01  9.255211e+00  2.021057e+01  # H0H CHA
     79       4   19   0.098600  1.672206e+01  8.899558e+00  1.783583e+01  # H0I CHA
     80       4   20   0.098600  1.576034e+01  1.013230e+01  1.863856e+01  # H0J CHA
     81       5    1  -0.916800  5.012222e+01  1.134297e+01  1.620704e+01  # N00 CHA
     82       5    2   0.149700  4.886485e+01  1.178279e+01  1.681682e+01  # C01 CHA
     83       5    3  -0.221000  4.777753e+01  1.199853e+01  1.575473e+01  # C02 CHA
     84       5    4  -0.174200  4.727026e+01  1.069204e+01  1.514375e+01  # C03 CHA
     85       5    5  -0.177100  4.681024e+01  9.711720e+00  1.621880e+01  # C04 CHA
     86       5    6  -0.177600  4.788843e+01  9.468635e+00  1.727200e+01  # C05 CHA
     87       5    7  -0.169300  4.839857e+01  1.077120e+01  1.787240e+01  # C06 CHA
     88       5    8   0.330300  5.039516e+01  1.199956e+01  1.547687e+01  # H07 CHA
     89       5    9   0.330300  4.999637e+01  1.044509e+01  1.574237e+01  # H08 CHA
     90       5   10   0.112900  4.906391e+01  1.273964e+01  1.731327e+01  # H09 CHA
     91       5   11   0.092200  4.814405e+01  1.265804e+01  1.495842e+01  # H0A CHA
     92       5   12   0.092200  4.693152e+01  1.251958e+01  1.622204e+01  # H0B CHA
     93       5   13   0.086300  4.805941e+01  1.023132e+01  1.453736e+01  # H0C CHA
     94       5   14   0.086300  4.643644e+01  1.090713e+01  1.446541e+01  # H0D CHA
     95       5   15   0.088900  4.652880e+01  8.760572e+00  1.575262e+01  # H0E CHA
     96       5   16   0.088900  4.591060e+01  1.010726e+01  1.670669e+01  # H0F CHA
     97       5   17   0.090400  4.872048e+01  8.913714e+00  1.682201e+01  # H0G CHA
     98       5   18   0.090400  4.748272e+01  8.835686e+00  1.806908e+01  # H0H CHA
     99       5   19   0.098600  4.921020e+01  1.055638e+01  1.857892e+01  # H0I CHA
    100       5   20   0.098600  4.758979e+01  1.122635e+01  1.845920e+01  # H0J CHA
    101       6    1  -0.916800  2.384361e+01  1.370868e+01  5.547716e+01  # N00 CHA
    102       6    2   0.149700  2.382113e+01  1.245822e+01  5.624010e+01  # C01 CHA
    103       6    3  -0.221000  2.254967e+01  1.235060e+01  5.709371e+01  # C02 CHA
    104       6    4  -0.174200  2.128891e+01  1.211323e+01  5.626203e+01  # C03 CHA
    105       6    5  -0.177100  2.144368e+01  1.090652e+01  5.534101e+01  # C04 CHA
    106       6    6  -0.177600  2.269244e+01  1.100782e+01  5.446857e+01  # C05 CHA
    107       6    7  -0.169300  2.394519e+01  1.125331e+01  5.529788e+01  # C06 CHA
    108       6    8   0.330300  2.371398e+01  1.449683e+01  5.611024e+01  # H07 CHA
    109       6    9   0.330300  2.306048e+01  1.374154e+01  5.482634e+01  # H08 CHA
    110       6   10   0.112900  2.469065e+01  1.247129e+01  5.690749e+01  # H09 CHA
    111       6   11   0.092200  2.242098e+01  1.325152e+01  5.770623e+01  # H0A CHA
    112       6   12   0.092200  2.267006e+01  1.151482e+01  5.779555e+01  # H0B CHA
    113       6   13   0.086300  2.106007e+01  1.300523e+01  5.566645e+01  # H0C CHA
    114       6   14   0.086300  2.043581e+01  1.195387e+01  5.693171e+01  # H0D CHA
    115       6   15   0.088900  2.055592e+01  1.081336e+01  5.470507e+01  # H0E CHA
    116       6   16   0.088900  2.149944e+01  9.994164e+00  5.594793e+01  # H0F CHA
    117       6   17   0.090400  2.256365e+01  1.181589e+01  5.373838e+01  # H0G CHA
    118       6   18   0.090400  2.281215e+01  1.008182e+01  5.389520e+01  # H0H CHA
    119       6   19   0.098600  2.480778e+01  1.137820e+01  5.463124e+01  # H0I CHA
    120       6   20   0.098600  2.414686e+01  1.035789e+01  5.590051e+01  # H0J CHA
    121       7    1  -0.916800  2.815754e+01  2.293263e+01  6.805872e+00  # N00 CHA
    122       7    2   0.149700  2.924995e+01  2.195692e+01  6.776763e+00  # C01 CHA
    123       7    3  -0.221000  3.048652e+01  2.252783e+01  6.068377e+00  # C02 CHA
    124       7    4  -0.174200  3.119396e+01  2.361270e+01  6.880851e+00  # C03 CHA
    125       7    5  -0.177100  3.153352e+01  2.312815e+01  8.287365e+00  # C04 CHA
    126       7    6  -0.177600  3.030963e+01  2.257696e+01  9.014743e+00  # C05 CHA
    127       7    7  -0.169300  2.960153e+01  2.150350e+01  8.200064e+00  # C06 CHA
    128       7    8   0.330300  2.796640e+01  2.325895e+01  5.859431e+00  # H07 CHA
    129       7    9   0.330300  2.843296e+01  2.375816e+01  7.335586e+00  # H08 CHA
    130       7   10   0.112900  2.889248e+01  2.108850e+01  6.211330e+00  # H09 CHA
    131       7   11   0.092200  3.021492e+01  2.292585e+01  5.082870e+00  # H0A CHA
    132       7   12   0.092200  3.119389e+01  2.170812e+01  5.885918e+00  # H0B CHA
    133       7   13   0.086300  3.056207e+01  2.450704e+01  6.941034e+00  # H0C CHA
    134       7   14   0.086300  3.211444e+01  2.391111e+01  6.365751e+00  # H0D CHA
    135       7   15   0.088900  3.196608e+01  2.395260e+01  8.865631e+00  # H0E CHA
    136       7   16   0.088900  3.229975e+01  2.234537e+01  8.224171e+00  # H0F CHA
    137       7   17   0.090400  2.961556e+01  2.339689e+01  9.235475e+00  # H0G CHA
    138       7   18   0.090400  3.061746e+01  2.215720e+01  9.978901e+00  # H0H CHA
    139       7   19   0.098600  2.869786e+01  2.117713e+01  8.730089e+00  # H0I CHA
    140       7   20   0.098600  3.025656e+01  2.062469e+01  8.134968e+00  # H0J CHA
    141       8    1  -0.916800  3.599026e+01  2.450108e+01  2.884826e+01  # N00 CHA
    142       8    2   0.149700  3.529355e+01  2.466633e+01  2.757017e+01  # C01 CHA
    143       8    3  -0.221000  3.377433e+01  2.452914e+01  2.774337e+01  # C02 CHA
    144       8    4  -0.174200  3.314684e+01  2.571255e+01  2.848047e+01  # C03 CHA
    145       8    5  -0.177100  3.351365e+01  2.704032e+01  2.782408e+01  # C04 CHA
    146       8    6  -0.177600  3.502322e+01  2.720286e+01  2.766406e+01  # C05 CHA
    147       8    7  -0.169300  3.564720e+01  2.601923e+01  2.693807e+01  # C06 CHA
    148       8    8   0.330300  3.571042e+01  2.362023e+01  2.927785e+01  # H07 CHA
    149       8    9   0.330300  3.571139e+01  2.523140e+01  2.950157e+01  # H08 CHA
    150       8   10   0.112900  3.564358e+01  2.386773e+01  2.690581e+01  # H09 CHA
    151       8   11   0.092200  3.353037e+01  2.359798e+01  2.826952e+01  # H0A CHA
    152       8   12   0.092200  3.331521e+01  2.445118e+01  2.674902e+01  # H0B CHA
    153       8   13   0.086300  3.347222e+01  2.571619e+01  2.952779e+01  # H0C CHA
    154       8   14   0.086300  3.205657e+01  2.559904e+01  2.848945e+01  # H0D CHA
    155       8   15   0.088900  3.311474e+01  2.786814e+01  2.842141e+01  # H0E CHA
    156       8   16   0.088900  3.303690e+01  2.709904e+01  2.683761e+01  # H0F CHA
    157       8   17   0.090400  3.548492e+01  2.732072e+01  2.865183e+01  # H0G CHA
    158       8   18   0.090400  3.523339e+01  2.812256e+01  2.710680e+01  # H0H CHA
    159       8   19   0.098600  3.673622e+01  2.614718e+01  2.689627e+01  # H0I CHA
    160       8   20   0.098600  3.529516e+01  2.602161e+01  2.589804e+01  # H0J CHA
    161       9    1  -0.916800  9.591915e+00  1.462093e+01  2.259001e+01  # N00 CHA
    162       9    2   0.149700  1.081999e+01  1.382982e+01  2.270049e+01  # C01 CHA
    163       9    3  -0.221000  1.093609e+01  1.317374e+01  2.408357e+01  # C02 CHA
    164       9    4  -0.174200  9.933911e+00  1.203832e+01  2.429328e+01  # C03 CHA
    165       9    5  -0.177100  1.001991e+01  1.100123e+01  2.317730e+01  # C04 CHA
    166       9    6  -0.177600  9.884170e+00  1.163442e+01  2.179474e+01  # C05 CHA
    167       9    7  -0.169300  1.087669e+01  1.277064e+01  2.159148e+01  # C06 CHA
    168       9    8   0.330300  9.545762e+00  1.528824e+01  2.335899e+01  # H07 CHA
    169       9    9   0.330300  8.773749e+00  1.402219e+01  2.269038e+01  # H08 CHA
    170       9   10   0.112900  1.166163e+01  1.451967e+01  2.256861e+01  # H09 CHA
    171       9   11   0.092200  1.081294e+01  1.392282e+01  2.487548e+01  # H0A CHA
    172       9   12   0.092200  1.195152e+01  1.277107e+01  2.419484e+01  # H0B CHA
    173       9   13   0.086300  8.915680e+00  1.244254e+01  2.434390e+01  # H0C CHA
    174       9   14   0.086300  1.012912e+01  1.155398e+01  2.525711e+01  # H0D CHA
    175       9   15   0.088900  9.237322e+00  1.024654e+01  2.331587e+01  # H0E CHA
    176       9   16   0.088900  1.098276e+01  1.047927e+01  2.324318e+01  # H0F CHA
    177       9   17   0.090400  8.860452e+00  1.200439e+01  2.166104e+01  # H0G CHA
    178       9   18   0.090400  1.004518e+01  1.086979e+01  2.102665e+01  # H0H CHA
    179       9   19   0.098600  1.070694e+01  1.323517e+01  2.061196e+01  # H0I CHA
    180       9   20   0.098600  1.189009e+01  1.234897e+01  2.156260e+01  # H0J CHA
    181      10    1  -0.916800  2.471234e+01  4.883803e+01  8.746030e+00  # N00 CHA
    182      10    2   0.149700  2.605668e+01  4.933902e+01  8.449391e+00  # C01 CHA
    183      10    3  -0.221000  2.708279e+01  4.819736e+01  8.425981e+00  # C02 CHA
    184      10    4  -0.174200  2.692778e+01  4.727826e+01  7.214059e+00  # C03 CHA
    185      10    5  -0.177100  2.694302e+01  4.806600e+01  5.907307e+00  # C04 CHA
    186      10    6  -0.177600  2.591250e+01  4.919242e+01  5.905058e+00  # C05 CHA
    187      10    7  -0.169300  2.606278e+01  5.010089e+01  7.117288e+00  # C06 CHA
    188      10    8   0.330300  2.473316e+01  4.829563e+01  9.608669e+00  # H07 CHA
    189      10    9   0.330300  2.440497e+01  4.819421e+01  8.018723e+00  # H08 CHA
    190      10   10   0.112900  2.632625e+01  5.003547e+01  9.251848e+00  # H09 CHA
    191      10   11   0.092200  2.701867e+01  4.760448e+01  9.346738e+00  # H0A CHA
    192      10   12   0.092200  2.809023e+01  4.863370e+01  8.409391e+00  # H0B CHA
    193      10   13   0.086300  2.599262e+01  4.671068e+01  7.292046e+00  # H0C CHA
    194      10   14   0.086300  2.774224e+01  4.654459e+01  7.207173e+00  # H0D CHA
    195      10   15   0.088900  2.675081e+01  4.738847e+01  5.067532e+00  # H0E CHA
    196      10   16   0.088900  2.794309e+01  4.849031e+01  5.753409e+00  # H0F CHA
    197      10   17   0.090400  2.490307e+01  4.876433e+01  5.882025e+00  # H0G CHA
    198      10   18   0.090400  2.602355e+01  4.978571e+01  4.990598e+00  # H0H CHA
    199      10   19   0.098600  2.526938e+01  5.085886e+01  7.108267e+00  # H0I CHA
    200      10   20   0.098600  2.701220e+01  5.064560e+01  7.030716e+00  # H0J CHA
    201      11    1  -0.916800  2.170804e+01  2.095533e+01  3.369744e+01  # N00 CHA
    202      11    2   0.149700  2.207379e+01  2.237025e+01  3.379979e+01  # C01 CHA
    203      11    3  -0.221000  2.357470e+01  2.253793e+01  3.407546e+01  # C02 CHA
    204      11    4  -0.174200  2.444766e+01  2.218068e+01  3.287219e+01  # C03 CHA
    205      11    5  -0.177100  2.402284e+01  2.294817e+01  3.162365e+01  # C04 CHA
    206      11    6  -0.177600  2.253632e+01  2.277443e+01  3.132217e+01  # C05 CHA
    207      11    7  -0.169300  2.166951e+01  2.312184e+01  3.252439e+01  # C06 CHA
    208      11    8   0.330300  2.202366e+01  2.046036e+01  3.453060e+01  # H07 CHA
    209      11    9   0.330300  2.219159e+01  2.051950e+01  3.291374e+01  # H08 CHA
    210      11   10   0.112900  2.151397e+01  2.278835e+01  3.464444e+01  # H09 CHA
    211      11   11   0.092200  2.387621e+01  2.193357e+01  3.493990e+01  # H0A CHA
    212      11   12   0.092200  2.376467e+01  2.358420e+01  3.434902e+01  # H0B CHA
    213      11   13   0.086300  2.439485e+01  2.110250e+01  3.267854e+01  # H0C CHA
    214      11   14   0.086300  2.549497e+01  2.240883e+01  3.310184e+01  # H0D CHA
    215      11   15   0.088900  2.461521e+01  2.261065e+01  3.076552e+01  # H0E CHA
    216      11   16   0.088900  2.424139e+01  2.401423e+01  3.176362e+01  # H0F CHA
    217      11   17   0.090400  2.234502e+01  2.174063e+01  3.101008e+01  # H0G CHA
    218      11   18   0.090400  2.225889e+01  2.341456e+01  3.047728e+01  # H0H CHA
    219      11   19   0.098600  2.061624e+01  2.292784e+01  3.228552e+01  # H0I CHA
    220      11   20   0.098600  2.175030e+01  2.420033e+01  3.271398e+01  # H0J CHA
    221      12    1  -0.916800  4.754748e+01  2.525567e+01  3.984302e+01  # N00 CHA
    222      12    2   0.149700  4.737320e+01  2.543464e+01  4.128657e+01  # C01 CHA
    223      12    3  -0.221000  4.629437e+01  2.449149e+01  4.183742e+01  # C02 CHA
    224      12    4  -0.174200  4.673341e+01  2.302713e+01  4.185768e+01  # C03 CHA
    225      12    5  -0.177100  4.805698e+01  2.284872e+01  4.259571e+01  # C04 CHA
    226      12    6  -0.177600  4.914788e+01  2.376422e+01  4.204561e+01  # C05 CHA
    227      12    7  -0.169300  4.870529e+01  2.522050e+01  4.201777e+01  # C06 CHA
    228      12    8   0.330300  4.664709e+01  2.535496e+01  3.937588e+01  # H07 CHA
    229      12    9   0.330300  4.786537e+01  2.430960e+01  3.963845e+01  # H08 CHA
    230      12   10   0.112900  4.704858e+01  2.646931e+01  4.144696e+01  # H09 CHA
    231      12   11   0.092200  4.536748e+01  2.458872e+01  4.125878e+01  # H0A CHA
    232      12   12   0.092200  4.605175e+01  2.479971e+01  4.286297e+01  # H0B CHA
    233      12   13   0.086300  4.682907e+01  2.265094e+01  4.083197e+01  # H0C CHA
    234      12   14   0.086300  4.595986e+01  2.242197e+01  4.234458e+01  # H0D CHA
    235      12   15   0.088900  4.838054e+01  2.180411e+01  4.252270e+01  # H0E CHA
    236      12   16   0.088900  4.790776e+01  2.306352e+01  4.366128e+01  # H0F CHA
    237      12   17   0.090400  4.942357e+01  2.343830e+01  4.103540e+01  # H0G CHA
    238      12   18   0.090400  5.004802e+01  2.366995e+01  4.266320e+01  # H0H CHA
    239      12   19   0.098600  4.949267e+01  2.583456e+01  4.156275e+01  # H0I CHA
    240      12   20   0.098600  4.859673e+01  2.557299e+01  4.305197e+01  # H0J CHA
    241      13    1  -0.916800  3.674151e+01  4.021502e+01  1.230015e+01  # N00 CHA
    242      13    2   0.149700  3.765740e+01  3.965373e+01  1.130399e+01  # C01 CHA
    243      13    3  -0.221000  3.723804e+01  4.004552e+01  9.880099e+00  # C02 CHA
    244      13    4  -0.174200  3.747265e+01  4.152475e+01  9.572868e+00  # C03 CHA
    245      13    5  -0.177100  3.891379e+01  4.193549e+01  9.860577e+00  # C04 CHA
    246      13    6  -0.177600  3.934050e+01  4.157273e+01  1.128084e+01  # C05 CHA
    247      13    7  -0.169300  3.909752e+01  4.010160e+01  1.158765e+01  # C06 CHA
    248      13    8   0.330300  3.578469e+01  3.994761e+01  1.207267e+01  # H07 CHA
    249      13    9   0.330300  3.676218e+01  4.123309e+01  1.226753e+01  # H08 CHA
    250      13   10   0.112900  3.760587e+01  3.856264e+01  1.139629e+01  # H09 CHA
    251      13   11   0.092200  3.618319e+01  3.979794e+01  9.708634e+00  # H0A CHA
    252      13   12   0.092200  3.781632e+01  3.944270e+01  9.167497e+00  # H0B CHA
    253      13   13   0.086300  3.678733e+01  4.214319e+01  1.016499e+01  # H0C CHA
    254      13   14   0.086300  3.724161e+01  4.171866e+01  8.518985e+00  # H0D CHA
    255      13   15   0.088900  3.902618e+01  4.301469e+01  9.705898e+00  # H0E CHA
    256      13   16   0.088900  3.958039e+01  4.143870e+01  9.144549e+00  # H0F CHA
    257      13   17   0.090400  3.879523e+01  4.219870e+01  1.199748e+01  # H0G CHA
    258      13   18   0.090400  4.040452e+01  4.179986e+01  1.141059e+01  # H0H CHA
    259      13   19   0.098600  3.936146e+01  3.989638e+01  1.263277e+01  # H0I CHA